 Gaussian 09, Revision D.01,
 Gaussian 09:  ES64L-G09RevD.01 24-Apr-2013

 ----------------------------------------------------------------------
 #p CAM-B3LYP/6-311++G** geom=allcheck nosym TD=(NSTATES=10,ROOT=1) den
 sity=current iop(3/119=0810000000) iop(3/120=0810000000)
 ----------------------------------------------------------------------

 Structure from the checkpoint file:  "checkpoint_es.chk"
 -------
 dianion
 -------
 Charge = -2 Multiplicity = 1

                          Input orientation:
 ---------------------------------------------------------------------
 Center     Atomic      Atomic             Coordinates (Angstroms)
 Number     Number       Type             X           Y           Z
 ---------------------------------------------------------------------
      1          8           0        2.778351   -0.571606   -4.712430
      2          8           0        2.786517   -0.557146    4.707795
      3          6           0        2.715474   -0.445520   -2.339619
      4          6           0        2.719490   -0.438520    2.334712
      5          6           0        0.659938   -0.317429   -3.657138
      6          6           0        0.666257   -0.306371    3.655390
      7          6           0       -0.071457   -0.209998   -2.509587
      8          6           0       -0.067123   -0.202389    2.508774
      9          6           0        0.533783   -0.223236   -1.215981
     10          6           0        0.535874   -0.219506    1.214188
     11          6           0        1.957887   -0.334504   -1.198237
     12          6           0        1.959926   -0.330879    1.194313
     13          6           0        2.113129   -0.452560   -3.650255
     14          6           0        2.119432   -0.441478    3.646406
     15          8           0        2.630640   -0.357382   -0.002506
     16          6           0       -0.174044   -0.143895   -0.000421
     17          6           0       -1.672513   -0.254681    0.001078
     18          6           0       -2.180556   -1.565193    0.003534
     19          6           0       -3.549223   -1.815261    0.005458
     20          6           0       -4.441375   -0.741692    0.004931
     21          6           0       -3.945416    0.557400    0.002397
     22          6           0       -2.569900    0.828504    0.000411
     23          1           0        3.792787   -0.537467   -2.262097
     24          1           0        3.796663   -0.530716    2.255564
     25          1           0        0.177194   -0.300265   -4.629584
     26          1           0        0.185173   -0.286278    4.628602
     27          1           0       -1.149138   -0.102693   -2.561396
     28          1           0       -1.144715   -0.094962    2.562134
     29          1           0       -1.480442   -2.394521    0.003959
     30          1           0       -3.912649   -2.839004    0.007354
     31          1           0       -5.513819   -0.920033    0.006509
     32          1           0       -4.600280    1.421682    0.001777
     33          6           0       -2.107897    2.314363   -0.002574
     34          8           0       -3.033364    3.162929   -0.002903
     35          8           0       -0.871412    2.484761   -0.004186
 ---------------------------------------------------------------------

 SCF Done:  E(RCAM-B3LYP) =  -1143.28018479     A.U. after   19 cycles

 Excitation energies and oscillator strengths:

 Excited state symmetry could not be determined.
 Excited State   1:      Singlet-?Sym    3.1232 eV  396.98 nm  f=0.8318  <S**2>=0.000
      86 -> 89         0.67989
 This state for optimization and/or second-order correction.
 Total Energy, E(TD-HF/TD-KS) =  -1143.16540963
 Copying the excited state density for this state as the 1-particle RhoCI density.

 Excited state symmetry could not be determined.
 Excited State   2:      Singlet-?Sym    3.9969 eV  310.20 nm  f=0.0028  <S**2>=0.000
      86 -> 87         0.45054
      86 -> 88         0.26776
      86 -> 90        -0.38201
      86 -> 93         0.10734
      86 -> 94         0.14951

 Excited state symmetry could not be determined.
 Excited State   3:      Singlet-?Sym    4.2584 eV  291.15 nm  f=0.0002  <S**2>=0.000
      85 -> 95        -0.10482
      86 -> 87         0.40991
      86 -> 90         0.35683
      86 -> 92        -0.40040

 Excited state symmetry could not be determined.
 Excited State   4:      Singlet-?Sym    4.2976 eV  288.50 nm  f=0.0406  <S**2>=0.000
      79 -> 89        -0.18199
      84 -> 89        -0.38882
      85 -> 89         0.41983
      86 ->100         0.22766
      86 ->102         0.14032

 Excited state symmetry could not be determined.
 Excited State   5:      Singlet-?Sym    4.3405 eV  285.65 nm  f=0.0043  <S**2>=0.000
      79 -> 90        -0.11318
      85 -> 90        -0.16668
      86 -> 91         0.62901
      86 -> 95         0.13317

 Excited state symmetry could not be determined.
 Excited State   6:      Singlet-?Sym    4.5116 eV  274.81 nm  f=0.0001  <S**2>=0.000
      79 -> 91        -0.12198
      85 -> 91        -0.13988
      86 -> 87         0.11997
      86 -> 88         0.12221
      86 -> 90         0.35885
      86 -> 92         0.46733
      86 -> 93         0.22272

 Excited state symmetry could not be determined.
 Excited State   7:      Singlet-?Sym    4.5253 eV  273.98 nm  f=0.0371  <S**2>=0.000
      84 -> 89         0.21924
      85 -> 89         0.50866
      86 -> 96         0.13141
      86 -> 97        -0.12866
      86 ->100        -0.27743
      86 ->102        -0.10933

 Excited state symmetry could not be determined.
 Excited State   8:      Singlet-?Sym    4.5560 eV  272.14 nm  f=0.0006  <S**2>=0.000
      80 ->110        -0.10238
      81 -> 89         0.21679
      86 -> 87        -0.29385
      86 -> 88         0.39156
      86 -> 92        -0.17968
      86 -> 93         0.26436
      86 -> 94         0.24596

 Excited state symmetry could not be determined.
 Excited State   9:      Singlet-?Sym    4.5690 eV  271.36 nm  f=0.0003  <S**2>=0.000
      80 ->110        -0.24967
      81 -> 89         0.53101
      81 ->137        -0.12107
      86 -> 87         0.13255
      86 -> 88        -0.14098
      86 -> 92         0.16301

 Excited state symmetry could not be determined.
 Excited State  10:      Singlet-?Sym    4.6184 eV  268.46 nm  f=0.0000  <S**2>=0.000
      80 -> 89         0.56831
      80 ->137        -0.13666
      81 ->102        -0.10671
      81 ->110        -0.28198

 Alpha  occ. eigenvalues --  -19.11743 -18.98777 -18.98776 -18.96015 -18.95983
 Alpha  occ. eigenvalues --  -10.18421 -10.18419 -10.16778 -10.16144 -10.16143
 Alpha  occ. eigenvalues --  -10.16126 -10.13898 -10.13684 -10.13416 -10.13202
 Alpha  occ. eigenvalues --  -10.11983 -10.11888 -10.11711 -10.11710 -10.10841
 Alpha  occ. eigenvalues --  -10.10840 -10.09228 -10.09228 -10.08117 -10.08117
 Alpha  occ. eigenvalues --   -1.05357  -0.94429  -0.92875  -0.92856  -0.85438
 Alpha  occ. eigenvalues --   -0.83961  -0.80842  -0.80328  -0.74697  -0.71808
 Alpha  occ. eigenvalues --   -0.71328  -0.70290  -0.67475  -0.65804  -0.59688
 Alpha  occ. eigenvalues --   -0.57708  -0.56589  -0.56429  -0.53005  -0.52751
 Alpha  occ. eigenvalues --   -0.47997  -0.46784  -0.46256  -0.44067  -0.42064
 Alpha  occ. eigenvalues --   -0.40824  -0.40671  -0.39119  -0.38362  -0.38190
 Alpha  occ. eigenvalues --   -0.37361  -0.36311  -0.35890  -0.34964  -0.34247
 Alpha  occ. eigenvalues --   -0.33505  -0.31776  -0.31514  -0.31286  -0.30416
 Alpha  occ. eigenvalues --   -0.30233  -0.29778  -0.29236  -0.28708  -0.28436
 Alpha  occ. eigenvalues --   -0.27874  -0.27091  -0.25362  -0.24013  -0.23225
 Alpha  occ. eigenvalues --   -0.17608  -0.16899  -0.16507  -0.15128  -0.14445
 Alpha  occ. eigenvalues --   -0.14100  -0.13221  -0.13125  -0.12270  -0.11037
 Alpha  occ. eigenvalues --   -0.05833
 Alpha virt. eigenvalues --    0.15841   0.17625   0.19336   0.19422   0.19430
 Alpha virt. eigenvalues --    0.19770   0.20578   0.21805   0.21874   0.22886
 Alpha virt. eigenvalues --    0.23133   0.23374   0.23631   0.26871   0.26943

 Mulliken charges:
               1
     1  O   -0.447255
     2  O   -0.447255
     3  C   -0.416307
     4  C   -0.416110
     5  C    0.004139
     6  C    0.004184
     7  C   -0.683578
     8  C   -0.683408
     9  C    0.408232
    10  C    0.408251
    11  C    0.247824
    12  C    0.247780
    13  C   -0.586085
    14  C   -0.586076
    15  O   -0.087655
    16  C    1.157068
    17  C    1.396092
    18  C   -0.734460
    19  C   -0.404742
    20  C   -0.450878
    21  C   -0.234293
    22  C   -0.604992
    23  H    0.172011
    24  H    0.172017
    25  H    0.173732
    26  H    0.173739
    27  H    0.142835
    28  H    0.142849
    29  H    0.187765
    30  H    0.149142
    31  H    0.133486
    32  H    0.239731
    33  C    0.109012
    34  O   -0.482477
    35  O   -0.404318
 Sum of Mulliken charges =  -2.00000

 Dipole moment (field-independent basis, Debye):
    X=             -5.2985    Y=             -7.9693    Z=              0.0247  Tot=              9.5700
 Quadrupole moment (field-independent basis, Debye-Ang):
   XX=           -219.8663   YY=           -194.0751   ZZ=           -263.2117
   XY=             31.7735   XZ=             -0.0821   YZ=             -0.1257

 Normal termination of Gaussian 09 at Thu Dec 26 15:59:15 2019.
